# Probe 0 (0.1 0.0525 0.05)
#         Probe               0
#          Time
              0             800
           0.01             800
           0.02             800
           0.03             800
           0.04       800.00001
           0.05       800.00001
           0.06       800.00001
           0.07       800.00002
           0.08       800.00003
           0.09       800.00004
            0.1       800.00008
           0.12       800.00013
           0.14       800.00018
           0.16       800.00024
           0.18       800.00031
            0.2        800.0004
           0.22       800.00049
           0.24        800.0006
           0.26       800.00073
           0.28       800.00086
            0.3       800.00101
           0.32       800.00118
           0.34       800.00136
           0.36       800.00155
           0.38       800.00176
            0.4       800.00199
           0.42       800.00224
           0.44        800.0025
           0.46       800.00278
           0.48       800.00308
            0.5        800.0034
           0.52       800.00374
           0.54        800.0041
           0.56       800.00448
           0.58       800.00487
            0.6       800.00529
           0.62       800.00573
           0.64       800.00619
           0.66       800.00667
           0.68       800.00718
            0.7        800.0077
           0.72       800.00825
           0.74       800.00882
           0.76       800.00942
           0.78       800.01004
            0.8       800.01068
           0.82       800.01134
           0.84       800.01203
           0.86       800.01275
           0.88       800.01349
            0.9       800.01425
           0.92       800.01504
           0.94       800.01585
           0.96       800.01669
           0.98       800.01755
              1       800.01759
           1.02       800.01847
           1.03       800.01892
           1.04       800.01937
           1.05       800.01983
           1.06        800.0203
           1.07       800.02078
           1.08       800.02126
           1.09       800.02174
            1.1       800.02321
           1.12       800.02425
           1.14       800.02532
           1.16       800.02642
           1.18       800.02753
            1.2       800.02868
           1.22       800.02985
           1.24       800.03104
           1.26       800.03226
           1.28        800.0335
            1.3       800.03477
           1.32       800.03606
           1.34       800.03738
           1.36       800.03872
           1.38       800.04008
            1.4       800.04147
           1.42       800.04289
           1.44       800.04432
           1.46       800.04578
           1.48       800.04727
            1.5       800.04877
           1.52        800.0503
           1.54       800.05186
           1.56       800.05343
           1.58       800.05503
            1.6       800.05666
           1.62        800.0583
           1.64       800.05997
           1.66       800.06166
           1.68       800.06338
            1.7       800.06511
           1.72       800.06687
           1.74       800.06865
           1.76       800.07045
           1.78       800.07228
            1.8       800.07413
           1.82       800.07599
           1.84       800.07788
           1.86       800.07979
           1.88       800.08173
            1.9       800.08368
           1.92       800.08565
           1.94       800.08765
           1.96       800.08967
           1.98        800.0917
              2       800.09181
           2.02       800.09385
           2.03       800.09489
           2.04       800.09593
           2.05       800.09696
           2.06       800.09802
           2.07       800.09906
           2.08       800.10013
           2.09       800.10118
            2.1       800.10431
           2.12       800.10649
           2.14       800.10869
           2.16       800.11091
           2.18       800.11314
            2.2        800.1154
           2.22       800.11768
           2.24       800.11997
           2.26       800.12228
           2.28       800.12461
            2.3       800.12696
           2.32       800.12933
           2.34       800.13171
           2.36       800.13411
           2.38       800.13653
            2.4       800.13897
           2.42       800.14142
           2.44       800.14389
           2.46       800.14638
           2.48       800.14888
            2.5        800.1514
           2.52       800.15394
           2.54       800.15649
           2.56       800.15906
           2.58       800.16165
            2.6       800.16425
           2.62       800.16686
           2.64        800.1695
           2.66       800.17214
           2.68       800.17481
            2.7       800.17749
           2.72       800.18018
           2.74       800.18289
           2.76       800.18561
           2.78       800.18835
            2.8        800.1911
           2.82       800.19386
           2.84       800.19664
           2.86       800.19944
           2.88       800.20224
            2.9       800.20507
           2.92        800.2079
           2.94       800.21075
           2.96       800.21361
           2.98       800.21649
              3       800.21663
           3.02        800.2195
           3.03       800.22096
           3.04        800.2224
           3.05       800.22387
           3.06       800.22531
           3.07       800.22678
           3.08       800.22824
           3.09        800.2297
            3.1       800.23399
           3.12       800.23695
           3.14       800.23993
           3.16       800.24292
           3.18       800.24592
            3.2       800.24894
           3.22       800.25197
           3.24         800.255
           3.26       800.25806
           3.28       800.26112
            3.3       800.26419
           3.32       800.26728
           3.34       800.27038
           3.36       800.27348
           3.38        800.2766
            3.4       800.27974
           3.42       800.28288
           3.44       800.28603
           3.46        800.2892
           3.48       800.29237
            3.5       800.29556
           3.52       800.29875
           3.54       800.30196
           3.56       800.30518
           3.58       800.30841
            3.6       800.31164
           3.62       800.31489
           3.64       800.31815
           3.66       800.32142
           3.68        800.3247
            3.7       800.32799
           3.72       800.33129
           3.74       800.33459
           3.76       800.33791
           3.78       800.34124
            3.8       800.34458
           3.82       800.34792
           3.84       800.35128
           3.86       800.35464
           3.88       800.35802
            3.9        800.3614
           3.92       800.36479
           3.94       800.36819
           3.96        800.3716
           3.98       800.37502
              4       800.37519
           4.01       800.37689
           4.02        800.3786
           4.03       800.38033
           4.04       800.38205
           4.05       800.38375
           4.06       800.38547
           4.07       800.38721
           4.08       800.38894
           4.09       800.39065
            4.1       800.39238
        4.12091       800.39933
        4.14091       800.40281
        4.16091       800.40631
        4.18091       800.40981
        4.20091       800.41333
        4.22091       800.41685
        4.24091       800.42037
        4.26091       800.42391
        4.28091       800.42746
        4.30091       800.43101
        4.32091       800.43457
        4.34091       800.43814
        4.36091       800.44171
        4.38091       800.44529
        4.40091       800.44889
        4.42091       800.45248
        4.44091       800.45609
        4.46091       800.45971
        4.48091       800.46333
        4.50091       800.46696
        4.52091       800.47059
        4.54091       800.47424
        4.56091       800.47789
        4.58091       800.48155
        4.60091       800.48521
        4.62091       800.48888
        4.64091       800.49256
        4.66091       800.49625
        4.68091       800.49994
        4.70091       800.50365
        4.72091       800.50735
        4.74091       800.51107
        4.76091       800.51479
        4.78091       800.51852
        4.80091       800.52225
        4.82091         800.526
        4.84091       800.52974
        4.86091        800.5335
        4.88091       800.53726
        4.90091       800.54103
        4.92091        800.5448
        4.94091       800.54858
        4.96091       800.55237
        4.98091       800.55616
        5.00091       800.55635
           5.02       800.55996
           5.03       800.56188
           5.04       800.56376
           5.05       800.56567
           5.06       800.56759
           5.07        800.5695
           5.08       800.57139
           5.09        800.5733
            5.1       800.57521
        5.12091       800.58288
        5.14091       800.58672
        5.16091       800.59057
        5.18091       800.59443
        5.20091       800.59829
        5.22091       800.60216
        5.24091       800.60603
        5.26091       800.60991
        5.28091       800.61379
        5.30091       800.61769
        5.32091       800.62158
        5.34091       800.62549
        5.36091       800.62939
        5.38091       800.63331
        5.40091       800.63723
        5.42091       800.64115
        5.44091       800.64509
        5.46091       800.64902
        5.48091       800.65297
        5.50091       800.65692
        5.52091       800.66087
        5.54091       800.66483
        5.56091        800.6688
        5.58091       800.67277
        5.60091       800.67674
        5.62091       800.68072
        5.64091       800.68471
        5.66091        800.6887
        5.68091        800.6927
        5.70091       800.69671
        5.72091       800.70071
        5.74091       800.70473
        5.76091       800.70875
        5.78091       800.71277
        5.80091        800.7168
        5.82091       800.72084
        5.84091       800.72488
        5.86091       800.72892
        5.88091       800.73297
        5.90091       800.73703
        5.92091       800.74109
        5.94091       800.74515
        5.96091       800.74922
        5.98091        800.7533
        6.00091       800.75349
           6.02       800.75737
           6.03       800.75943
           6.04       800.76147
           6.05        800.7635
           6.06       800.76556
           6.07       800.76761
           6.08       800.76965
           6.09       800.77168
            6.1       800.77373
        6.12091       800.78194
        6.14091       800.78606
        6.16091       800.79018
        6.18091        800.7943
        6.20091       800.79843
        6.22091       800.80256
        6.24091        800.8067
        6.26091       800.81084
        6.28091       800.81499
        6.30091       800.81914
        6.32091       800.82329
        6.34091       800.82745
        6.36091       800.83162
        6.38091       800.83579
        6.40091       800.83996
        6.42091       800.84414
        6.44091       800.84833
        6.46091       800.85252
        6.48091       800.85671
        6.50091       800.86091
        6.52091       800.86511
        6.54091       800.86931
        6.56091       800.87353
        6.58091       800.87774
        6.60091       800.88196
        6.62091       800.88618
        6.64091       800.89041
        6.66091       800.89465
        6.68091       800.89888
        6.70091       800.90312
        6.72091       800.90737
        6.74091       800.91162
        6.76091       800.91587
        6.78091       800.92013
        6.80091        800.9244
        6.82091       800.92866
        6.84091       800.93293
        6.86091       800.93721
        6.88091       800.94149
        6.90091       800.94577
        6.92091       800.95006
        6.94091       800.95435
        6.96091       800.95865
        6.98091       800.96295
        7.00091       800.96315
        7.01091       800.96528
        7.02091       800.96743
        7.03091        800.9696
        7.04091       800.97176
        7.05091       800.97389
        7.06091       800.97605
        7.07091       800.97822
        7.08091       800.98038
        7.09091       800.98252
           7.12       800.99294
           7.14       800.99727
           7.16        801.0016
           7.18       801.00594
            7.2       801.01029
           7.22       801.01463
           7.24       801.01898
           7.26       801.02334
           7.28        801.0277
            7.3       801.03206
           7.32       801.03643
           7.34        801.0408
           7.36       801.04517
           7.38       801.04955
            7.4       801.05393
           7.42       801.05832
           7.44       801.06271
           7.46        801.0671
           7.48        801.0715
            7.5        801.0759
           7.52        801.0803
           7.54       801.08471
           7.56       801.08912
           7.58       801.09354
            7.6       801.09796
           7.62       801.10238
           7.64       801.10681
           7.66       801.11124
           7.68       801.11567
            7.7       801.12011
           7.72       801.12455
           7.74         801.129
           7.76       801.13345
           7.78        801.1379
            7.8       801.14235
           7.82       801.14681
           7.84       801.15127
           7.86       801.15574
           7.88       801.16021
            7.9       801.16468
           7.92       801.16916
           7.94       801.17364
           7.96       801.17812
           7.98       801.18261
              8       801.18283
        8.01091       801.18528
        8.02091       801.18753
        8.03091       801.18977
        8.04091         801.192
        8.05091       801.19425
        8.06091       801.19649
        8.07091       801.19874
        8.08091       801.20099
        8.09091       801.20326
       8.120021       801.21411
      8.1400211       801.21862
      8.1600211       801.22314
      8.1800211       801.22766
      8.2000211       801.23218
      8.2200211       801.23671
      8.2400211       801.24124
      8.2600211       801.24577
      8.2800211       801.25031
      8.3000211       801.25485
      8.3200211       801.25939
      8.3400211       801.26394
      8.3600211       801.26849
      8.3800211       801.27304
      8.4000211        801.2776
      8.4200211       801.28216
      8.4400211       801.28672
      8.4600211       801.29128
      8.4800211       801.29585
      8.5000211       801.30043
      8.5200211         801.305
      8.5400211       801.30958
      8.5600211       801.31416
      8.5800211       801.31875
      8.6000211       801.32334
      8.6200211       801.32793
      8.6400211       801.33252
      8.6600211       801.33712
      8.6800211       801.34172
      8.7000211       801.34633
      8.7200211       801.35093
      8.7400211       801.35554
      8.7600211       801.36016
      8.7800211       801.36477
      8.8000211       801.36939
      8.8200211       801.37401
      8.8400211       801.37864
      8.8600211       801.38327
      8.8800211        801.3879
      8.9000211       801.39253
      8.9200211       801.39717
      8.9400211       801.40181
      8.9600211       801.40645
      8.9800211        801.4111
      9.0000211       801.41133
        9.01091       801.41386
        9.02091       801.41619
        9.03091       801.41851
        9.04091       801.42084
        9.05091       801.42314
        9.06091       801.42547
        9.07091        801.4278
